#------------------------------------------------------------------------------
#$Date: 2010-06-10 15:11:07 +0000 (Thu, 10 Jun 2010) $
#$Revision: 1210 $
#$URL: svn://cod.ibt.lt/cod/cif/9/9000629.cif $
#------------------------------------------------------------------------------
#
# This file is available in the Crystallography Open Database (COD),
# http://www.crystallography.net/. The original data for this entry
# were provided the American Mineralogist Crystal Structure Database,
# http://rruff.geo.arizona.edu/AMS/amcsd.php
#
# The file may be used within the scientific community so long as
# proper attribution is given to the journal article from which the
# data were obtained.
#
data_9000629
loop_
_publ_author_name
'Finger, L. W.'
'King, H. E.'
_publ_section_title
;
 A revised method of operation of the single-crystal diamond cell and refinement
 of the structure of NaCl at 32 kbar
;
_journal_name_full               'American Mineralogist'
_journal_page_first              337
_journal_page_last               342
_journal_volume                  63
_journal_year                    1978
_chemical_formula_sum            'Cl Na'
_chemical_name_mineral           Halite
_space_group_IT_number           225
_symmetry_space_group_name_Hall  '-F 4 2 3'
_symmetry_space_group_name_H-M   'F m -3 m'
_cell_angle_alpha                90
_cell_angle_beta                 90
_cell_angle_gamma                90
_cell_length_a                   5.4533
_cell_length_b                   5.4533
_cell_length_c                   5.4533
_cell_volume                     162.173
_exptl_crystal_density_diffrn    2.394
_[local]_cod_cif_authors_sg_H-M  'F m 3 m'
_[local]_cod_chemical_formula_sum_orig 'Na Cl'
_cod_database_code               9000629
_amcsd_database_code             AMCSD#0000640
loop_
_symmetry_equiv_pos_as_xyz
x,y,z
z,-x,y
-y,z,-x
x,-y,z
-z,x,-y
y,-z,x
-x,y,-z
x,-z,-y
-z,y,x
y,-x,-z
-x,z,y
z,-y,-x
-y,x,z
x,z,y
-z,-y,-x
y,x,z
-x,-z,-y
z,y,x
-y,-x,-z
z,x,-y
-y,-z,x
x,y,-z
-z,-x,y
y,z,-x
-x,-y,z
-z,x,y
y,-z,-x
-x,y,z
z,-x,-y
-y,z,x
x,-y,-z
-x,z,-y
z,-y,x
-y,x,-z
x,-z,y
-z,y,-x
y,-x,z
-x,-z,y
z,y,-x
-y,-x,z
x,z,-y
-z,-y,x
y,x,-z
-z,-x,-y
y,z,x
-x,-y,-z
z,x,y
-y,-z,-x
loop_
_atom_site_label
_atom_site_fract_x
_atom_site_fract_y
_atom_site_fract_z
_atom_site_U_iso_or_equiv
Na 0.00000 0.00000 0.00000 0.01849
Cl 0.50000 0.50000 0.50000 0.01494

